     Program PWSCF v.7.4.1 starts
     number of electrons       =         8.00
     number of k points=     4

          k = 0.0000 0.0000 0.0000 (   341 PWs)   bands (ev):

   -5.1000  -3.2000  -3.2000  -3.2000   6.5000   7.0000

          k = 0.5000 0.0000 0.0000 (   338 PWs)   bands (ev):

   -4.8000  -3.0000  -2.9000  -2.5000   6.8000   7.2000

          k = 0.5000 0.5000 0.0000 (   336 PWs)   bands (ev):

   -4.5000  -2.8000  -2.7000  -2.4000   7.0000   7.5000

          k = 0.0000 0.0000 0.5000 (   340 PWs)   bands (ev):

   -5.0000  -3.1000  -3.0000  -2.6000   6.6000   7.1000

     JOB DONE.
